 argument  1 = thiophene6_slr.nw
                                         
                                         


              Northwest Computational Chemistry Package (NWChem) 6.6
              ------------------------------------------------------


                    Environmental Molecular Sciences Laboratory
                       Pacific Northwest National Laboratory
                                Richland, WA 99352

                              Copyright (c) 1994-2015
                       Pacific Northwest National Laboratory
                            Battelle Memorial Institute

             NWChem is an open-source computational chemistry package
                        distributed under the terms of the
                      Educational Community License (ECL) 2.0
             A copy of the license is included with this distribution
                              in the LICENSE.TXT file

                                  ACKNOWLEDGMENT
                                  --------------

            This software and its documentation were developed at the
            EMSL at Pacific Northwest National Laboratory, a multiprogram
            national laboratory, operated for the U.S. Department of Energy
            by Battelle under Contract Number DE-AC05-76RL01830. Support
            for this work was provided by the Department of Energy Office
            of Biological and Environmental Research, Office of Basic
            Energy Sciences, and the Office of Advanced Scientific Computing.


           Job information
           ---------------

    hostname        = compute-0-3.local
    program         = /home/gkh873/local/nwchem-6.6/bin/LINUX64/nwchem
    date            = Mon Feb  4 01:10:19 2019

    compiled        = Tue_Nov_27_17:58:21_2018
    source          = /home/gkh873/local/nwchem-6.6
    nwchem branch   = 6.6
    nwchem revision = 27746
    ga revision     = 10594
    input           = thiophene6_slr.nw
    prefix          = thiophene6_slr.
    data base       = ./thiophene6_slr.db
    status          = startup
    nproc           =       64
    time left       =     -1s



           Memory information
           ------------------

    heap     =   78643196 doubles =    600.0 Mbytes
    stack    =  104857601 doubles =    800.0 Mbytes
    global   =  209715200 doubles =   1600.0 Mbytes (distinct from heap & stack)
    total    =  393215997 doubles =   3000.0 Mbytes
    verify   = yes
    hardfail = no 


           Directory information
           ---------------------

  0 permanent = .
  0 scratch   = .




                                NWChem Input Module
                                -------------------


                                  thiophene6_slr
                                  --------------

 Scaling coordinates for geometry "geometry" by  1.889725989
 (inverse scale =  0.529177249)

 C2H symmetry detected

          ------
          auto-z
          ------


                             Geometry "geometry" -> ""
                             -------------------------

 Output coordinates in angstroms (scale by  1.889725989 to convert to a.u.)

  No.       Tag          Charge          X              Y              Z
 ---- ---------------- ---------- -------------- -------------- --------------
    1 C                    6.0000    -0.01490766     0.72286270     0.00000000
    2 S                   16.0000    -1.51638036     1.60221976     0.00000000
    3 C                    6.0000    -0.70355539     3.18119546     0.00000000
    4 C                    6.0000     0.69287733     3.00035660     0.00000000
    5 C                    6.0000     1.03163388     1.60028252     0.00000000
    6 C                    6.0000     0.70355539    -3.18119546     0.00000000
    7 C                    6.0000    -0.69287733    -3.00035660     0.00000000
    8 C                    6.0000    -1.03163388    -1.60028252     0.00000000
    9 C                    6.0000     0.01490766    -0.72286270     0.00000000
   10 S                   16.0000     1.51638036    -1.60221976     0.00000000
   11 H                    1.0000    -2.05307361    -1.24734313     0.00000000
   12 C                    6.0000     3.16914471     3.55560022     0.00000000
   13 C                    6.0000     1.83392153     3.93472122     0.00000000
   14 S                   16.0000     1.76183550     5.69038701     0.00000000
   15 C                    6.0000     3.48078091     5.85174526     0.00000000
   16 C                    6.0000     4.09381029     4.63028475     0.00000000
   17 H                    1.0000     3.50137264     2.52640283     0.00000000
   18 C                    6.0000    -1.65646288     4.28951707     0.00000000
   19 C                    6.0000    -3.03910419     4.14334056     0.00000000
   20 C                    6.0000    -3.76616761     5.35807405     0.00000000
   21 C                    6.0000    -2.95269355     6.45736591     0.00000000
   22 S                   16.0000    -1.28445977     6.01068531     0.00000000
   23 H                    1.0000    -3.53290740     3.17887528     0.00000000
   24 H                    1.0000    -4.84947296     5.40871213     0.00000000
   25 H                    1.0000    -3.22500311     7.50426143     0.00000000
   26 C                    6.0000     2.95269355    -6.45736591     0.00000000
   27 S                   16.0000     1.28445977    -6.01068531     0.00000000
   28 C                    6.0000     1.65646288    -4.28951707     0.00000000
   29 C                    6.0000     3.03910419    -4.14334056     0.00000000
   30 C                    6.0000     3.76616761    -5.35807405     0.00000000
   31 H                    1.0000     3.53290740    -3.17887528     0.00000000
   32 C                    6.0000    -3.48078091    -5.85174526     0.00000000
   33 C                    6.0000    -4.09381029    -4.63028475     0.00000000
   34 C                    6.0000    -3.16914471    -3.55560022     0.00000000
   35 C                    6.0000    -1.83392153    -3.93472122     0.00000000
   36 S                   16.0000    -1.76183550    -5.69038701     0.00000000
   37 H                    1.0000    -3.92713871    -6.83704645     0.00000000
   38 H                    1.0000    -5.16994513    -4.49502590     0.00000000
   39 H                    1.0000    -3.50137264    -2.52640283     0.00000000
   40 H                    1.0000     5.16994513     4.49502590     0.00000000
   41 H                    1.0000     3.92713871     6.83704645     0.00000000
   42 H                    1.0000     2.05307361     1.24734313     0.00000000
   43 H                    1.0000     4.84947296    -5.40871213     0.00000000
   44 H                    1.0000     3.22500311    -7.50426143     0.00000000

      Atomic Mass 
      ----------- 

      C                 12.000000
      S                 31.972070
      H                  1.007825


 Effective nuclear repulsion energy (a.u.)    3529.6541096135

            Nuclear Dipole moment (a.u.) 
            ----------------------------
        X                 Y               Z
 ---------------- ---------------- ----------------
    -0.0000000000    -0.0000000000     0.0000000000

      Symmetry information
      --------------------

 Group name             C2h       
 Group number             21
 Group order               4
 No. of unique centers    22

      Symmetry unique atoms

     1    2    3    4    5   11   12   13   14   15   16   17   18   19   20
    21   22   23   24   25   37   38



                                Z-matrix (autoz)
                                -------- 

 Units are Angstrom for bonds and degrees for angles

      Type          Name      I     J     K     L     M      Value
      ----------- --------  ----- ----- ----- ----- ----- ----------
    1 Stretch                  1     2                       1.74003
    2 Stretch                  1     5                       1.36569
    3 Stretch                  1     9                       1.44603
    4 Stretch                  2     3                       1.77591
    5 Stretch                  3     4                       1.40809
    6 Stretch                  3    18                       1.46165
    7 Stretch                  4     5                       1.44047
    8 Stretch                  4    13                       1.47479
    9 Stretch                  5    42                       1.08070
   10 Stretch                  6     7                       1.40809
   11 Stretch                  6    10                       1.77591
   12 Stretch                  6    28                       1.46165
   13 Stretch                  7     8                       1.44047
   14 Stretch                  7    35                       1.47479
   15 Stretch                  8     9                       1.36569
   16 Stretch                  8    11                       1.08070
   17 Stretch                  9    10                       1.74003
   18 Stretch                 12    13                       1.38800
   19 Stretch                 12    16                       1.41773
   20 Stretch                 12    17                       1.08149
   21 Stretch                 13    14                       1.75715
   22 Stretch                 14    15                       1.72650
   23 Stretch                 15    16                       1.36666
   24 Stretch                 15    41                       1.08169
   25 Stretch                 16    40                       1.08460
   26 Stretch                 18    19                       1.39035
   27 Stretch                 18    22                       1.76091
   28 Stretch                 19    20                       1.41570
   29 Stretch                 19    23                       1.08353
   30 Stretch                 20    21                       1.36755
   31 Stretch                 20    24                       1.08449
   32 Stretch                 21    22                       1.72700
   33 Stretch                 21    25                       1.08173
   34 Stretch                 26    27                       1.72700
   35 Stretch                 26    30                       1.36755
   36 Stretch                 26    44                       1.08173
   37 Stretch                 27    28                       1.76091
   38 Stretch                 28    29                       1.39035
   39 Stretch                 29    30                       1.41570
   40 Stretch                 29    31                       1.08353
   41 Stretch                 30    43                       1.08449
   42 Stretch                 32    33                       1.36666
   43 Stretch                 32    36                       1.72650
   44 Stretch                 32    37                       1.08169
   45 Stretch                 33    34                       1.41773
   46 Stretch                 33    38                       1.08460
   47 Stretch                 34    35                       1.38800
   48 Stretch                 34    39                       1.08149
   49 Stretch                 35    36                       1.75715
   50 Bend                     1     2     3                93.11743
   51 Bend                     1     5     4               116.37479
   52 Bend                     1     5    42               120.96192
   53 Bend                     1     9     8               128.79500
   54 Bend                     1     9    10               121.53738
   55 Bend                     2     1     5               109.66762
   56 Bend                     2     1     9               121.53738
   57 Bend                     2     3     4               109.85973
   58 Bend                     2     3    18               112.07337
   59 Bend                     3     4     5               110.98043
   60 Bend                     3     4    13               133.30828
   61 Bend                     3    18    19               124.65308
   62 Bend                     3    18    22               127.11590
   63 Bend                     4     3    18               138.06690
   64 Bend                     4     5    42               122.66329
   65 Bend                     4    13    12               124.83577
   66 Bend                     4    13    14               126.96176
   67 Bend                     5     1     9               128.79500
   68 Bend                     5     4    13               115.71129
   69 Bend                     6     7     8               110.98043
   70 Bend                     6     7    35               133.30828
   71 Bend                     6    10     9                93.11743
   72 Bend                     6    28    27               127.11590
   73 Bend                     6    28    29               124.65308
   74 Bend                     7     6    10               109.85973
   75 Bend                     7     6    28               138.06690
   76 Bend                     7     8     9               116.37479
   77 Bend                     7     8    11               122.66329
   78 Bend                     7    35    34               124.83577
   79 Bend                     7    35    36               126.96176
   80 Bend                     8     7    35               115.71129
   81 Bend                     8     9    10               109.66762
   82 Bend                     9     8    11               120.96192
   83 Bend                    10     6    28               112.07337
   84 Bend                    12    13    14               108.20247
   85 Bend                    12    16    15               112.63982
   86 Bend                    12    16    40               123.54501
   87 Bend                    13    12    16               114.85764
   88 Bend                    13    12    17               123.74151
   89 Bend                    13    14    15                93.01148
   90 Bend                    14    15    16               111.28860
   91 Bend                    14    15    41               119.73398
   92 Bend                    15    16    40               123.81517
   93 Bend                    16    12    17               121.40085
   94 Bend                    16    15    41               128.97742
   95 Bend                    18    19    20               114.86705
   96 Bend                    18    19    23               123.14735
   97 Bend                    18    22    21                92.79373
   98 Bend                    19    18    22               108.23102
   99 Bend                    19    20    21               112.59653
  100 Bend                    19    20    24               123.57839
  101 Bend                    20    19    23               121.98560
  102 Bend                    20    21    22               111.51167
  103 Bend                    20    21    25               128.91842
  104 Bend                    21    20    24               123.82509
  105 Bend                    22    21    25               119.56990
  106 Bend                    26    27    28                92.79373
  107 Bend                    26    30    29               112.59653
  108 Bend                    26    30    43               123.82509
  109 Bend                    27    26    30               111.51167
  110 Bend                    27    26    44               119.56990
  111 Bend                    27    28    29               108.23102
  112 Bend                    28    29    30               114.86705
  113 Bend                    28    29    31               123.14735
  114 Bend                    29    30    43               123.57839
  115 Bend                    30    26    44               128.91842
  116 Bend                    30    29    31               121.98560
  117 Bend                    32    33    34               112.63982
  118 Bend                    32    33    38               123.81517
  119 Bend                    32    36    35                93.01148
  120 Bend                    33    32    36               111.28860
  121 Bend                    33    32    37               128.97742
  122 Bend                    33    34    35               114.85764
  123 Bend                    33    34    39               121.40085
  124 Bend                    34    33    38               123.54501
  125 Bend                    34    35    36               108.20247
  126 Bend                    35    34    39               123.74151
  127 Bend                    36    32    37               119.73398
  128 Torsion                  1     2     3     4           0.00000
  129 Torsion                  1     2     3    18         180.00000
  130 Torsion                  1     5     4     3           0.00000
  131 Torsion                  1     5     4    13         180.00000
  132 Torsion                  1     9     8     7         180.00000
  133 Torsion                  1     9     8    11           0.00000
  134 Torsion                  1     9    10     6         180.00000
  135 Torsion                  2     1     5     4           0.00000
  136 Torsion                  2     1     5    42         180.00000
  137 Torsion                  2     1     9     8          -0.00000
  138 Torsion                  2     1     9    10         180.00000
  139 Torsion                  2     3     4     5           0.00000
  140 Torsion                  2     3     4    13         180.00000
  141 Torsion                  2     3    18    19           0.00000
  142 Torsion                  2     3    18    22         180.00000
  143 Torsion                  3     2     1     5           0.00000
  144 Torsion                  3     2     1     9         180.00000
  145 Torsion                  3     4     5    42         180.00000
  146 Torsion                  3     4    13    12         180.00000
  147 Torsion                  3     4    13    14           0.00000
  148 Torsion                  3    18    19    20         180.00000
  149 Torsion                  3    18    19    23           0.00000
  150 Torsion                  3    18    22    21         180.00000
  151 Torsion                  4     3    18    19         180.00000
  152 Torsion                  4     3    18    22           0.00000
  153 Torsion                  4     5     1     9         180.00000
  154 Torsion                  4    13    12    16         180.00000
  155 Torsion                  4    13    12    17           0.00000
  156 Torsion                  4    13    14    15         180.00000
  157 Torsion                  5     1     9     8         180.00000
  158 Torsion                  5     1     9    10           0.00000
  159 Torsion                  5     4     3    18         180.00000
  160 Torsion                  5     4    13    12           0.00000
  161 Torsion                  5     4    13    14         180.00000
  162 Torsion                  6     7     8     9           0.00000
  163 Torsion                  6     7     8    11         180.00000
  164 Torsion                  6     7    35    34         180.00000
  165 Torsion                  6     7    35    36           0.00000
  166 Torsion                  6    10     9     8           0.00000
  167 Torsion                  6    28    27    26         180.00000
  168 Torsion                  6    28    29    30         180.00000
  169 Torsion                  6    28    29    31           0.00000
  170 Torsion                  7     6    10     9           0.00000
  171 Torsion                  7     6    28    27          -0.00000
  172 Torsion                  7     6    28    29         180.00000
  173 Torsion                  7     8     9    10           0.00000
  174 Torsion                  7    35    34    33         180.00000
  175 Torsion                  7    35    34    39          -0.00000
  176 Torsion                  7    35    36    32         180.00000
  177 Torsion                  8     7     6    10           0.00000
  178 Torsion                  8     7     6    28         180.00000
  179 Torsion                  8     7    35    34           0.00000
  180 Torsion                  8     7    35    36         180.00000
  181 Torsion                  9     1     5    42           0.00000
  182 Torsion                  9     8     7    35         180.00000
  183 Torsion                  9    10     6    28         180.00000
  184 Torsion                 10     6     7    35         180.00000
  185 Torsion                 10     6    28    27         180.00000
  186 Torsion                 10     6    28    29           0.00000
  187 Torsion                 10     9     8    11         180.00000
  188 Torsion                 11     8     7    35          -0.00000
  189 Torsion                 12    13    14    15           0.00000
  190 Torsion                 12    16    15    14           0.00000
  191 Torsion                 12    16    15    41         180.00000
  192 Torsion                 13     4     3    18          -0.00000
  193 Torsion                 13     4     5    42           0.00000
  194 Torsion                 13    12    16    15           0.00000
  195 Torsion                 13    12    16    40         180.00000
  196 Torsion                 13    14    15    16           0.00000
  197 Torsion                 13    14    15    41         180.00000
  198 Torsion                 14    13    12    16           0.00000
  199 Torsion                 14    13    12    17         180.00000
  200 Torsion                 14    15    16    40         180.00000
  201 Torsion                 15    16    12    17         180.00000
  202 Torsion                 17    12    16    40           0.00000
  203 Torsion                 18    19    20    21          -0.00000
  204 Torsion                 18    19    20    24         180.00000
  205 Torsion                 18    22    21    20           0.00000
  206 Torsion                 18    22    21    25         180.00000
  207 Torsion                 19    18    22    21           0.00000
  208 Torsion                 19    20    21    22           0.00000
  209 Torsion                 19    20    21    25         180.00000
  210 Torsion                 20    19    18    22           0.00000
  211 Torsion                 21    20    19    23         180.00000
  212 Torsion                 22    18    19    23         180.00000
  213 Torsion                 22    21    20    24         180.00000
  214 Torsion                 23    19    20    24           0.00000
  215 Torsion                 24    20    21    25           0.00000
  216 Torsion                 26    27    28    29           0.00000
  217 Torsion                 26    30    29    28           0.00000
  218 Torsion                 26    30    29    31         180.00000
  219 Torsion                 27    26    30    29           0.00000
  220 Torsion                 27    26    30    43         180.00000
  221 Torsion                 27    28    29    30           0.00000
  222 Torsion                 27    28    29    31         180.00000
  223 Torsion                 28     6     7    35           0.00000
  224 Torsion                 28    27    26    30           0.00000
  225 Torsion                 28    27    26    44         180.00000
  226 Torsion                 28    29    30    43         180.00000
  227 Torsion                 29    30    26    44         180.00000
  228 Torsion                 31    29    30    43           0.00000
  229 Torsion                 32    33    34    35           0.00000
  230 Torsion                 32    33    34    39         180.00000
  231 Torsion                 32    36    35    34           0.00000
  232 Torsion                 33    32    36    35           0.00000
  233 Torsion                 33    34    35    36           0.00000
  234 Torsion                 34    33    32    36           0.00000
  235 Torsion                 34    33    32    37         180.00000
  236 Torsion                 35    34    33    38         180.00000
  237 Torsion                 35    36    32    37         180.00000
  238 Torsion                 36    32    33    38         180.00000
  239 Torsion                 36    35    34    39         180.00000
  240 Torsion                 37    32    33    38           0.00000
  241 Torsion                 38    33    34    39           0.00000
  242 Torsion                 40    16    15    41           0.00000
  243 Torsion                 43    30    26    44           0.00000


            XYZ format geometry
            -------------------
    44
 geometry
 C                    -0.01490766     0.72286270     0.00000000
 S                    -1.51638036     1.60221976     0.00000000
 C                    -0.70355539     3.18119546     0.00000000
 C                     0.69287733     3.00035660     0.00000000
 C                     1.03163388     1.60028252     0.00000000
 C                     0.70355539    -3.18119546     0.00000000
 C                    -0.69287733    -3.00035660     0.00000000
 C                    -1.03163388    -1.60028252     0.00000000
 C                     0.01490766    -0.72286270     0.00000000
 S                     1.51638036    -1.60221976     0.00000000
 H                    -2.05307361    -1.24734313     0.00000000
 C                     3.16914471     3.55560022     0.00000000
 C                     1.83392153     3.93472122     0.00000000
 S                     1.76183550     5.69038701     0.00000000
 C                     3.48078091     5.85174526     0.00000000
 C                     4.09381029     4.63028475     0.00000000
 H                     3.50137264     2.52640283     0.00000000
 C                    -1.65646288     4.28951707     0.00000000
 C                    -3.03910419     4.14334056     0.00000000
 C                    -3.76616761     5.35807405     0.00000000
 C                    -2.95269355     6.45736591     0.00000000
 S                    -1.28445977     6.01068531     0.00000000
 H                    -3.53290740     3.17887528     0.00000000
 H                    -4.84947296     5.40871213     0.00000000
 H                    -3.22500311     7.50426143     0.00000000
 C                     2.95269355    -6.45736591     0.00000000
 S                     1.28445977    -6.01068531     0.00000000
 C                     1.65646288    -4.28951707     0.00000000
 C                     3.03910419    -4.14334056     0.00000000
 C                     3.76616761    -5.35807405     0.00000000
 H                     3.53290740    -3.17887528     0.00000000
 C                    -3.48078091    -5.85174526     0.00000000
 C                    -4.09381029    -4.63028475     0.00000000
 C                    -3.16914471    -3.55560022     0.00000000
 C                    -1.83392153    -3.93472122     0.00000000
 S                    -1.76183550    -5.69038701     0.00000000
 H                    -3.92713871    -6.83704645     0.00000000
 H                    -5.16994513    -4.49502590     0.00000000
 H                    -3.50137264    -2.52640283     0.00000000
 H                     5.16994513     4.49502590     0.00000000
 H                     3.92713871     6.83704645     0.00000000
 H                     2.05307361     1.24734313     0.00000000
 H                     4.84947296    -5.40871213     0.00000000
 H                     3.22500311    -7.50426143     0.00000000

 ==============================================================================
                                internuclear distances
 ------------------------------------------------------------------------------
       center one      |      center two      | atomic units |  angstroms
 ------------------------------------------------------------------------------
    2 S                |   1 C                |     3.28817  |     1.74003
    3 C                |   2 S                |     3.35598  |     1.77591
    4 C                |   3 C                |     2.66091  |     1.40809
    5 C                |   1 C                |     2.58078  |     1.36569
    5 C                |   4 C                |     2.72210  |     1.44047
    7 C                |   6 C                |     2.66091  |     1.40809
    8 C                |   7 C                |     2.72210  |     1.44047
    9 C                |   1 C                |     2.73261  |     1.44603
    9 C                |   8 C                |     2.58078  |     1.36569
   10 S                |   6 C                |     3.35598  |     1.77591
   10 S                |   9 C                |     3.28817  |     1.74003
   11 H                |   8 C                |     2.04222  |     1.08070
   13 C                |   4 C                |     2.78696  |     1.47479
   13 C                |  12 C                |     2.62295  |     1.38800
   14 S                |  13 C                |     3.32052  |     1.75715
   15 C                |  14 S                |     3.26262  |     1.72650
   16 C                |  12 C                |     2.67912  |     1.41773
   16 C                |  15 C                |     2.58262  |     1.36666
   17 H                |  12 C                |     2.04372  |     1.08149
   18 C                |   3 C                |     2.76211  |     1.46165
   19 C                |  18 C                |     2.62737  |     1.39035
   20 C                |  19 C                |     2.67528  |     1.41570
   21 C                |  20 C                |     2.58429  |     1.36755
   22 S                |  18 C                |     3.32764  |     1.76091
   22 S                |  21 C                |     3.26356  |     1.72700
   23 H                |  19 C                |     2.04757  |     1.08353
   24 H                |  20 C                |     2.04939  |     1.08449
   25 H                |  21 C                |     2.04418  |     1.08173
   27 S                |  26 C                |     3.26356  |     1.72700
   28 C                |   6 C                |     2.76211  |     1.46165
   28 C                |  27 S                |     3.32764  |     1.76091
   29 C                |  28 C                |     2.62737  |     1.39035
   30 C                |  26 C                |     2.58429  |     1.36755
   30 C                |  29 C                |     2.67528  |     1.41570
   31 H                |  29 C                |     2.04757  |     1.08353
   33 C                |  32 C                |     2.58262  |     1.36666
   34 C                |  33 C                |     2.67912  |     1.41773
   35 C                |   7 C                |     2.78696  |     1.47479
   35 C                |  34 C                |     2.62295  |     1.38800
   36 S                |  32 C                |     3.26262  |     1.72650
   36 S                |  35 C                |     3.32052  |     1.75715
   37 H                |  32 C                |     2.04410  |     1.08169
   38 H                |  33 C                |     2.04960  |     1.08460
   39 H                |  34 C                |     2.04372  |     1.08149
   40 H                |  16 C                |     2.04960  |     1.08460
   41 H                |  15 C                |     2.04410  |     1.08169
   42 H                |   5 C                |     2.04222  |     1.08070
   43 H                |  30 C                |     2.04939  |     1.08449
   44 H                |  26 C                |     2.04418  |     1.08173
 ------------------------------------------------------------------------------
                         number of included internuclear distances:         49
 ==============================================================================



 ==============================================================================
                                 internuclear angles
 ------------------------------------------------------------------------------
        center 1       |       center 2       |       center 3       |  degrees
 ------------------------------------------------------------------------------
    2 S                |   1 C                |   5 C                |   109.67
    2 S                |   1 C                |   9 C                |   121.54
    5 C                |   1 C                |   9 C                |   128.80
    1 C                |   2 S                |   3 C                |    93.12
    2 S                |   3 C                |   4 C                |   109.86
    2 S                |   3 C                |  18 C                |   112.07
    4 C                |   3 C                |  18 C                |   138.07
    3 C                |   4 C                |   5 C                |   110.98
    3 C                |   4 C                |  13 C                |   133.31
    5 C                |   4 C                |  13 C                |   115.71
    1 C                |   5 C                |   4 C                |   116.37
    1 C                |   5 C                |  42 H                |   120.96
    4 C                |   5 C                |  42 H                |   122.66
    7 C                |   6 C                |  10 S                |   109.86
    7 C                |   6 C                |  28 C                |   138.07
   10 S                |   6 C                |  28 C                |   112.07
    6 C                |   7 C                |   8 C                |   110.98
    6 C                |   7 C                |  35 C                |   133.31
    8 C                |   7 C                |  35 C                |   115.71
    7 C                |   8 C                |   9 C                |   116.37
    7 C                |   8 C                |  11 H                |   122.66
    9 C                |   8 C                |  11 H                |   120.96
    1 C                |   9 C                |   8 C                |   128.80
    1 C                |   9 C                |  10 S                |   121.54
    8 C                |   9 C                |  10 S                |   109.67
    6 C                |  10 S                |   9 C                |    93.12
   13 C                |  12 C                |  16 C                |   114.86
   13 C                |  12 C                |  17 H                |   123.74
   16 C                |  12 C                |  17 H                |   121.40
    4 C                |  13 C                |  12 C                |   124.84
    4 C                |  13 C                |  14 S                |   126.96
   12 C                |  13 C                |  14 S                |   108.20
   13 C                |  14 S                |  15 C                |    93.01
   14 S                |  15 C                |  16 C                |   111.29
   14 S                |  15 C                |  41 H                |   119.73
   16 C                |  15 C                |  41 H                |   128.98
   12 C                |  16 C                |  15 C                |   112.64
   12 C                |  16 C                |  40 H                |   123.55
   15 C                |  16 C                |  40 H                |   123.82
    3 C                |  18 C                |  19 C                |   124.65
    3 C                |  18 C                |  22 S                |   127.12
   19 C                |  18 C                |  22 S                |   108.23
   18 C                |  19 C                |  20 C                |   114.87
   18 C                |  19 C                |  23 H                |   123.15
   20 C                |  19 C                |  23 H                |   121.99
   19 C                |  20 C                |  21 C                |   112.60
   19 C                |  20 C                |  24 H                |   123.58
   21 C                |  20 C                |  24 H                |   123.83
   20 C                |  21 C                |  22 S                |   111.51
   20 C                |  21 C                |  25 H                |   128.92
   22 S                |  21 C                |  25 H                |   119.57
   18 C                |  22 S                |  21 C                |    92.79
   27 S                |  26 C                |  30 C                |   111.51
   27 S                |  26 C                |  44 H                |   119.57
   30 C                |  26 C                |  44 H                |   128.92
   26 C                |  27 S                |  28 C                |    92.79
    6 C                |  28 C                |  27 S                |   127.12
    6 C                |  28 C                |  29 C                |   124.65
   27 S                |  28 C                |  29 C                |   108.23
   28 C                |  29 C                |  30 C                |   114.87
   28 C                |  29 C                |  31 H                |   123.15
   30 C                |  29 C                |  31 H                |   121.99
   26 C                |  30 C                |  29 C                |   112.60
   26 C                |  30 C                |  43 H                |   123.83
   29 C                |  30 C                |  43 H                |   123.58
   33 C                |  32 C                |  36 S                |   111.29
   33 C                |  32 C                |  37 H                |   128.98
   36 S                |  32 C                |  37 H                |   119.73
   32 C                |  33 C                |  34 C                |   112.64
   32 C                |  33 C                |  38 H                |   123.82
   34 C                |  33 C                |  38 H                |   123.55
   33 C                |  34 C                |  35 C                |   114.86
   33 C                |  34 C                |  39 H                |   121.40
   35 C                |  34 C                |  39 H                |   123.74
    7 C                |  35 C                |  34 C                |   124.84
    7 C                |  35 C                |  36 S                |   126.96
   34 C                |  35 C                |  36 S                |   108.20
   32 C                |  36 S                |  35 C                |    93.01
 ------------------------------------------------------------------------------
                            number of included internuclear angles:         78
 ==============================================================================



  library name resolved from: .nwchemrc
  library file name is: </share/apps/nwchem/6.6/data/libraries/>
  


 Summary of "ao basis" -> "" (cartesian)
 ------------------------------------------------------------------------------
       Tag                 Description            Shells   Functions and Types
 ---------------- ------------------------------  ------  ---------------------
 *                           6-31g*                   on all atoms 


input begins
input ends
slr_init begins
     ------------------------------------------------------------------
     ------------------------------------------------------------------
              Second Linear Response (SLR) TDDFT Calculation
     ------------------------------------------------------------------
     ------------------------------------------------------------------
     Lambda 0.0100
     Ctol   0.0500
     no_relax: Second relaxation omitted 
     ------------------------------------------------------------------

                                 NWChem DFT Module
                                 -----------------


                                  thiophene6_slr


                      Basis "ao basis" -> "ao basis" (cartesian)
                      -----
  C (Carbon)
  ----------
            Exponent  Coefficients 
       -------------- ---------------------------------------------------------
  1 S  3.04752490E+03  0.001835
  1 S  4.57369510E+02  0.014037
  1 S  1.03948690E+02  0.068843
  1 S  2.92101550E+01  0.232184
  1 S  9.28666300E+00  0.467941
  1 S  3.16392700E+00  0.362312

  2 S  7.86827240E+00 -0.119332
  2 S  1.88128850E+00 -0.160854
  2 S  5.44249300E-01  1.143456

  3 P  7.86827240E+00  0.068999
  3 P  1.88128850E+00  0.316424
  3 P  5.44249300E-01  0.744308

  4 S  1.68714400E-01  1.000000

  5 P  1.68714400E-01  1.000000

  6 D  8.00000000E-01  1.000000

  S (Sulphur)
  -----------
            Exponent  Coefficients 
       -------------- ---------------------------------------------------------
  1 S  2.19171000E+04  0.001869
  1 S  3.30149000E+03  0.014230
  1 S  7.54146000E+02  0.069696
  1 S  2.12711000E+02  0.238487
  1 S  6.79896000E+01  0.483307
  1 S  2.30515000E+01  0.338074

  2 S  4.23735000E+02 -0.002377
  2 S  1.00710000E+02 -0.031693
  2 S  3.21599000E+01 -0.113317
  2 S  1.18079000E+01  0.056090
  2 S  4.63110000E+00  0.592255
  2 S  1.87025000E+00  0.455006

  3 P  4.23735000E+02  0.004061
  3 P  1.00710000E+02  0.030681
  3 P  3.21599000E+01  0.130452
  3 P  1.18079000E+01  0.327205
  3 P  4.63110000E+00  0.452851
  3 P  1.87025000E+00  0.256042

  4 S  2.61584000E+00 -0.250374
  4 S  9.22167000E-01  0.066957
  4 S  3.41287000E-01  1.054510

  5 P  2.61584000E+00 -0.014511
  5 P  9.22167000E-01  0.310263
  5 P  3.41287000E-01  0.754483

  6 S  1.17167000E-01  1.000000

  7 P  1.17167000E-01  1.000000

  8 D  6.50000000E-01  1.000000

  H (Hydrogen)
  ------------
            Exponent  Coefficients 
       -------------- ---------------------------------------------------------
  1 S  1.87311370E+01  0.033495
  1 S  2.82539370E+00  0.234727
  1 S  6.40121700E-01  0.813757

  2 S  1.61277800E-01  1.000000



 Summary of "ao basis" -> "ao basis" (cartesian)
 ------------------------------------------------------------------------------
       Tag                 Description            Shells   Functions and Types
 ---------------- ------------------------------  ------  ---------------------
 C                           6-31g*                  6       15   3s2p1d
 S                           6-31g*                  8       19   4s3p1d
 H                           6-31g*                  2        2   2s




 Summary of "ao basis" -> "ao basis" (cartesian)
 ------------------------------------------------------------------------------
       Tag                 Description            Shells   Functions and Types
 ---------------- ------------------------------  ------  ---------------------
 C                           6-31g*                  6       15   3s2p1d
 S                           6-31g*                  8       19   4s3p1d
 H                           6-31g*                  2        2   2s


      Symmetry analysis of basis
      --------------------------

        ag        188
        au         63
        bg         63
        bu        188

  Caching 1-el integrals 

            General Information
            -------------------
          SCF calculation type: DFT
          Wavefunction type:  closed shell.
          No. of atoms     :    44
          No. of electrons :   254
           Alpha electrons :   127
            Beta electrons :   127
          Charge           :     0
          Spin multiplicity:     1
          Use of symmetry is: off; symmetry adaption is: on 
          Maximum number of iterations: 300
          This is a Direct SCF calculation.
          AO basis - number of functions:   502
                     number of shells:   220
          Convergence on energy requested: 1.00D-07
          Convergence on density requested: 1.00D-05
          Convergence on gradient requested: 5.00D-04

              XC Information
              --------------
                         B3LYP Method XC Potential
                     Hartree-Fock (Exact) Exchange  0.200          
                        Slater Exchange Functional  0.800 local    
                    Becke 1988 Exchange Functional  0.720 non-local
              Lee-Yang-Parr Correlation Functional  0.810          
                  VWN I RPA Correlation Functional  0.190 local    

             Grid Information
             ----------------
          Grid used for XC integration:  xfine     
          Radial quadrature: Mura-Knowles        
          Angular quadrature: Lebedev. 
          Tag              B.-S. Rad. Rad. Pts. Rad. Cut. Ang. Pts.
          ---              ---------- --------- --------- ---------
          C                   0.70      100          17.0      1454
          S                   1.00      125          17.0      1454
          H                   0.35      100          16.0      1202
          Grid pruning is: on 
          Number of quadrature shells:  4550
          Spatial weights used:  Erf1

          Convergence Information
          -----------------------
          Convergence aids based upon iterative change in 
          total energy or number of iterations. 
          Levelshifting, if invoked, occurs when the 
          HOMO/LUMO gap drops below (HL_TOL): 1.00D-02
          DIIS, if invoked, will attempt to extrapolate 
          using up to (NFOCK): 10 stored Fock matrices.

                    Damping( 0%)  Levelshifting(0.5)       DIIS
                  --------------- ------------------- ---------------
          dE  on:    start            ASAP                start   
          dE off:    2 iters        300 iters           300 iters 


      Screening Tolerance Information
      -------------------------------
          Density screening/tol_rho: 1.00D-10
          AO Gaussian exp screening on grid/accAOfunc:  16
          CD Gaussian exp screening on grid/accCDfunc:  20
          XC Gaussian exp screening on grid/accXCfunc:  20
          Schwarz screening/accCoul: 1.00D-08


 Loading old vectors from job with title :




      Symmetry analysis of molecular orbitals - initial
      -------------------------------------------------


 !! scf_movecs_sym_adapt:   83 vectors were symmetry contaminated

  Symmetry fudging
  Numbering of irreducible representations: 

     1 ag          2 au          3 bg          4 bu      

  Orbital symmetries:

     1 ag          2 bu          3 ag          4 bu          5 ag      
     6 bu          7 bu          8 ag          9 ag         10 bu      
    11 ag         12 bu         13 bu         14 ag         15 ag      
    16 bu         17 bu         18 ag         19 ag         20 bu      
    21 ag         22 bu         23 bu         24 ag         25 ag      
    26 bu         27 bu         28 ag         29 bu         30 ag      
    31 ag         32 bu         33 ag         34 bu         35 ag      
    36 bu         37 ag         38 bu         39 ag         40 bu      
    41 ag         42 bu         43 bu         44 ag         45 bu      
    46 ag         47 bu         48 ag         49 bg         50 au      
    51 au         52 bg         53 bg         54 au         55 ag      
    56 bu         57 ag         58 bu         59 ag         60 bu      
    61 ag         62 bu         63 ag         64 bu         65 ag      
    66 bu         67 bu         68 ag         69 bu         70 ag      
    71 ag         72 bu         73 ag         74 bu         75 ag      
    76 bu         77 ag         78 bu         79 ag         80 bu      
    81 ag         82 bu         83 ag         84 bu         85 ag      
    86 bu         87 bu         88 ag         89 ag         90 bu      
    91 ag         92 bu         93 au         94 bu         95 ag      
    96 bg         97 ag         98 bu         99 ag        100 bu      
   101 ag        102 bu        103 au        104 bg        105 bu      
   106 au        107 ag        108 ag        109 bu        110 bg      
   111 ag        112 bu        113 ag        114 bu        115 ag      
   116 au        117 bg        118 au        119 bg        120 au      
   121 bg        122 au        123 bg        124 au        125 bg      
   126 au        127 bg        128 au        129 bg        130 au      
   131 bg        132 au        133 ag        134 bu        135 ag      
   136 bu        137 bg      

   Time after variat. SCF:      2.4
   Time prior to 1st pass:      2.4

 Grid_pts file          = ./thiophene6_slr.gridpts.00
 Record size in doubles =  12289        No. of grid_pts per rec  =   3070
 Max. records in memory =     39        Max. recs in file   =    386565

 Grid integrated density:     254.000012043962
 Requested integration accuracy:   0.10E-07

 !! scf_movecs_sym_adapt:   60 vectors were symmetry contaminated

  Symmetry fudging

 !! scf_movecs_sym_adapt:   44 vectors were symmetry contaminated


           Memory utilization after 1st SCF pass: 
           Heap Space remaining (MW):       78.13            78129132
          Stack Space remaining (MW):      104.85           104852780

   convergence    iter        energy       DeltaE   RMS-Dens  Diis-err    time
 ---------------- ----- ----------------- --------- --------- ---------  ------
 d= 0,ls=0.0,diis     1  -3312.0323812280 -6.84D+03  5.47D-07  9.14D-09     9.7
 Grid integrated density:     254.000012044085
 Requested integration accuracy:   0.10E-07

 !! scf_movecs_sym_adapt:   58 vectors were symmetry contaminated

  Symmetry fudging

 !! scf_movecs_sym_adapt:   40 vectors were symmetry contaminated

 d= 0,ls=0.0,diis     2  -3312.0323812216  6.37D-09  3.95D-07  5.28D-08    15.9


         Total DFT energy =    -3312.032381221632
      One electron energy =   -11577.044059370872
           Coulomb energy =     5025.010615786318
    Exchange-Corr. energy =     -289.653047250594
 Nuclear repulsion energy =     3529.654109613515

 Numeric. integr. density =      254.000012044085

     Total iterative time =     13.6s



                  Occupations of the irreducible representations
                  ----------------------------------------------

                     irrep           alpha         beta
                     --------     --------     --------
                     ag               52.0         52.0
                     au               12.0         12.0
                     bg               12.0         12.0
                     bu               51.0         51.0


                       DFT Final Molecular Orbital Analysis
                       ------------------------------------

 Vector   54  Occ=2.000000D+00  E=-5.926613D+00  Symmetry=au
              MO Center= -4.6D-16, -3.9D-16, -1.2D-29, r^2= 4.9D+00
   Bfn.  Coefficient  Atom+Function         Bfn.  Coefficient  Atom+Function  
  ----- ------------  ---------------      ----- ------------  ---------------
    20      0.700933   2 S  pz              144      0.700933  10 S  pz        

 Vector   55  Occ=2.000000D+00  E=-9.072657D-01  Symmetry=ag
              MO Center= -4.0D-10,  1.8D-09, -1.3D-12, r^2= 1.0D+01
   Bfn.  Coefficient  Atom+Function         Bfn.  Coefficient  Atom+Function  
  ----- ------------  ---------------      ----- ------------  ---------------
    21      0.202255   2 S  s               145      0.202255  10 S  s         

 Vector   56  Occ=2.000000D+00  E=-8.968831D-01  Symmetry=bu
              MO Center= -5.5D-10, -1.8D-09, -1.6D-12, r^2= 2.0D+01
   Bfn.  Coefficient  Atom+Function         Bfn.  Coefficient  Atom+Function  
  ----- ------------  ---------------      ----- ------------  ---------------
    21      0.149464   2 S  s               145     -0.149464  10 S  s         
   307      0.139445  22 S  s               347     -0.139445  27 S  s         

 Vector   57  Occ=2.000000D+00  E=-8.815775D-01  Symmetry=ag
              MO Center=  6.8D-10, -3.6D-10, -1.4D-22, r^2= 3.3D+01
   Bfn.  Coefficient  Atom+Function         Bfn.  Coefficient  Atom+Function  
  ----- ------------  ---------------      ----- ------------  ---------------
   307      0.193603  22 S  s               347      0.193603  27 S  s         

 Vector   58  Occ=2.000000D+00  E=-8.814400D-01  Symmetry=bu
              MO Center=  1.9D-10, -9.2D-12, -3.3D-23, r^2= 3.3D+01
   Bfn.  Coefficient  Atom+Function         Bfn.  Coefficient  Atom+Function  
  ----- ------------  ---------------      ----- ------------  ---------------
   196      0.187705  14 S  s               473     -0.187705  36 S  s         
   307     -0.157690  22 S  s               347      0.157690  27 S  s         

 Vector   59  Occ=2.000000D+00  E=-8.784805D-01  Symmetry=ag
              MO Center=  9.9D-11,  1.6D-09, -8.2D-13, r^2= 2.7D+01
   Bfn.  Coefficient  Atom+Function         Bfn.  Coefficient  Atom+Function  
  ----- ------------  ---------------      ----- ------------  ---------------
   196      0.191532  14 S  s               473      0.191532  36 S  s         

 Vector   60  Occ=2.000000D+00  E=-8.663923D-01  Symmetry=bu
              MO Center= -7.3D-11, -1.2D-09,  3.1D-23, r^2= 2.1D+01
   Bfn.  Coefficient  Atom+Function         Bfn.  Coefficient  Atom+Function  
  ----- ------------  ---------------      ----- ------------  ---------------
    21      0.190858   2 S  s               145     -0.190858  10 S  s         

 Vector   61  Occ=2.000000D+00  E=-7.934013D-01  Symmetry=ag
              MO Center= -3.8D-13, -1.3D-11, -6.2D-24, r^2= 1.5D+01
   Bfn.  Coefficient  Atom+Function         Bfn.  Coefficient  Atom+Function  
  ----- ------------  ---------------      ----- ------------  ---------------
     2      0.175992   1 C  s               126      0.175992   9 C  s         
    36     -0.152891   3 C  s                81     -0.152891   6 C  s         

 Vector   62  Occ=2.000000D+00  E=-7.757889D-01  Symmetry=bu
              MO Center=  3.3D-10,  4.8D-09, -6.1D-13, r^2= 1.8D+01
   Bfn.  Coefficient  Atom+Function         Bfn.  Coefficient  Atom+Function  
  ----- ------------  ---------------      ----- ------------  ---------------
    21      0.230490   2 S  s               145     -0.230490  10 S  s         

 Vector   63  Occ=2.000000D+00  E=-7.716054D-01  Symmetry=ag
              MO Center= -4.0D-10, -4.9D-09,  4.8D-22, r^2= 2.0D+01
   Bfn.  Coefficient  Atom+Function         Bfn.  Coefficient  Atom+Function  
  ----- ------------  ---------------      ----- ------------  ---------------
    21      0.200879   2 S  s               145      0.200879  10 S  s         

 Vector   64  Occ=2.000000D+00  E=-7.567250D-01  Symmetry=bu
              MO Center= -2.1D-10,  3.1D-10, -9.4D-13, r^2= 2.3D+01
   Bfn.  Coefficient  Atom+Function         Bfn.  Coefficient  Atom+Function  
  ----- ------------  ---------------      ----- ------------  ---------------
    21      0.142904   2 S  s               145     -0.142904  10 S  s         
   243     -0.131489  18 C  s               362      0.131489  28 C  s         

 Vector   65  Occ=2.000000D+00  E=-7.405817D-01  Symmetry=ag
              MO Center= -2.6D-09,  1.2D-08, -1.4D-12, r^2= 3.4D+01
   Bfn.  Coefficient  Atom+Function         Bfn.  Coefficient  Atom+Function  
  ----- ------------  ---------------      ----- ------------  ---------------
   307      0.270115  22 S  s               347      0.270115  27 S  s         
   196      0.216671  14 S  s               473      0.216671  36 S  s         

 Vector   66  Occ=2.000000D+00  E=-7.397320D-01  Symmetry=bu
              MO Center=  1.0D-09, -1.2D-08, -1.7D-21, r^2= 3.4D+01
   Bfn.  Coefficient  Atom+Function         Bfn.  Coefficient  Atom+Function  
  ----- ------------  ---------------      ----- ------------  ---------------
   307      0.267180  22 S  s               347     -0.267180  27 S  s         
   196      0.209076  14 S  s               473     -0.209076  36 S  s         

 Vector   67  Occ=2.000000D+00  E=-7.328324D-01  Symmetry=bu
              MO Center=  1.6D-09, -1.7D-10, -2.6D-22, r^2= 3.5D+01
   Bfn.  Coefficient  Atom+Function         Bfn.  Coefficient  Atom+Function  
  ----- ------------  ---------------      ----- ------------  ---------------
   196      0.268143  14 S  s               473     -0.268143  36 S  s         
   307     -0.212727  22 S  s               347      0.212727  27 S  s         

 Vector   68  Occ=2.000000D+00  E=-7.328250D-01  Symmetry=ag
              MO Center=  7.7D-11, -7.9D-12, -2.6D-24, r^2= 3.5D+01
   Bfn.  Coefficient  Atom+Function         Bfn.  Coefficient  Atom+Function  
  ----- ------------  ---------------      ----- ------------  ---------------
   196      0.269262  14 S  s               473      0.269262  36 S  s         
   307     -0.212194  22 S  s               347     -0.212194  27 S  s         

 Vector   69  Occ=2.000000D+00  E=-7.131298D-01  Symmetry=bu
              MO Center= -1.6D-08,  5.8D-09, -9.9D-13, r^2= 2.1D+01
   Bfn.  Coefficient  Atom+Function         Bfn.  Coefficient  Atom+Function  
  ----- ------------  ---------------      ----- ------------  ---------------
    21      0.238476   2 S  s               145     -0.238476  10 S  s         

 Vector   70  Occ=2.000000D+00  E=-7.127594D-01  Symmetry=ag
              MO Center=  1.6D-08, -4.5D-09, -3.8D-13, r^2= 2.7D+01
   Bfn.  Coefficient  Atom+Function         Bfn.  Coefficient  Atom+Function  
  ----- ------------  ---------------      ----- ------------  ---------------
   288      0.138639  21 C  s               328      0.138639  26 C  s         
   243     -0.128553  18 C  s               362     -0.128553  28 C  s         
    21      0.125041   2 S  s               145      0.125041  10 S  s         

 Vector   71  Occ=2.000000D+00  E=-7.015309D-01  Symmetry=ag
              MO Center= -2.7D-10, -1.1D-09, -1.2D-12, r^2= 2.2D+01
   Bfn.  Coefficient  Atom+Function         Bfn.  Coefficient  Atom+Function  
  ----- ------------  ---------------      ----- ------------  ---------------
    21      0.267780   2 S  s               145      0.267780  10 S  s         

 Vector   72  Occ=2.000000D+00  E=-6.859046D-01  Symmetry=bu
              MO Center=  1.1D-12, -2.1D-10, -6.4D-13, r^2= 2.3D+01
   Bfn.  Coefficient  Atom+Function         Bfn.  Coefficient  Atom+Function  
  ----- ------------  ---------------      ----- ------------  ---------------
    40      0.139744   3 C  s                85     -0.139744   6 C  s         
    36      0.136209   3 C  s                81     -0.136209   6 C  s         

 Vector   73  Occ=2.000000D+00  E=-6.182926D-01  Symmetry=ag
              MO Center= -4.6D-10,  1.3D-09, -1.6D-12, r^2= 1.7D+01
   Bfn.  Coefficient  Atom+Function         Bfn.  Coefficient  Atom+Function  
  ----- ------------  ---------------      ----- ------------  ---------------
    21      0.222568   2 S  s               145      0.222568  10 S  s         

 Vector   74  Occ=2.000000D+00  E=-6.149483D-01  Symmetry=bu
              MO Center=  5.9D-10, -1.4D-09, -8.0D-23, r^2= 2.4D+01
   Bfn.  Coefficient  Atom+Function         Bfn.  Coefficient  Atom+Function  
  ----- ------------  ---------------      ----- ------------  ---------------
   307     -0.117466  22 S  s               347      0.117466  27 S  s         
    51     -0.112828   4 C  s                96      0.112828   7 C  s         
     3      0.110347   1 C  px              127      0.110347   9 C  px        

 Vector   75  Occ=2.000000D+00  E=-5.959623D-01  Symmetry=ag
              MO Center= -2.9D-10,  2.1D-10, -2.5D-13, r^2= 2.1D+01
   Bfn.  Coefficient  Atom+Function         Bfn.  Coefficient  Atom+Function  
  ----- ------------  ---------------      ----- ------------  ---------------
    70      0.144753   5 C  s               115      0.144753   8 C  s         
    66      0.135628   5 C  s               111      0.135628   8 C  s         

 Vector   76  Occ=2.000000D+00  E=-5.821544D-01  Symmetry=bu
              MO Center=  2.8D-09,  2.5D-08, -3.5D-13, r^2= 3.2D+01
   Bfn.  Coefficient  Atom+Function         Bfn.  Coefficient  Atom+Function  
  ----- ------------  ---------------      ----- ------------  ---------------
    52      0.120079   4 C  px               97      0.120079   7 C  px        
    37     -0.108203   3 C  px               82     -0.108203   6 C  px        

 Vector   77  Occ=2.000000D+00  E=-5.809533D-01  Symmetry=ag
              MO Center= -2.8D-09, -2.6D-08, -5.1D-13, r^2= 3.2D+01
   Bfn.  Coefficient  Atom+Function         Bfn.  Coefficient  Atom+Function  
  ----- ------------  ---------------      ----- ------------  ---------------
   196      0.142833  14 S  s               473      0.142833  36 S  s         

 Vector   78  Occ=2.000000D+00  E=-5.567339D-01  Symmetry=bu
              MO Center= -4.6D-09,  3.4D-08, -4.5D-13, r^2= 3.8D+01
   Bfn.  Coefficient  Atom+Function         Bfn.  Coefficient  Atom+Function  
  ----- ------------  ---------------      ----- ------------  ---------------
   309      0.119977  22 S  py              349      0.119977  27 S  py        
   273     -0.113121  20 C  s               392      0.113121  30 C  s         

 Vector   79  Occ=2.000000D+00  E=-5.563378D-01  Symmetry=ag
              MO Center=  3.8D-09, -3.4D-08, -5.7D-13, r^2= 3.9D+01
   Bfn.  Coefficient  Atom+Function         Bfn.  Coefficient  Atom+Function  
  ----- ------------  ---------------      ----- ------------  ---------------
   273      0.113303  20 C  s               392      0.113303  30 C  s         
   309     -0.104426  22 S  py              349      0.104426  27 S  py        

 Vector   80  Occ=2.000000D+00  E=-5.528013D-01  Symmetry=bu
              MO Center=  3.6D-10,  8.1D-10, -7.1D-13, r^2= 2.7D+01
   Bfn.  Coefficient  Atom+Function         Bfn.  Coefficient  Atom+Function  
  ----- ------------  ---------------      ----- ------------  ---------------
     6      0.125193   1 C  s               130     -0.125193   9 C  s         
   181      0.123650  13 C  s               458     -0.123650  35 C  s         
   198     -0.115625  14 S  py              475     -0.115625  36 S  py        

 Vector   81  Occ=2.000000D+00  E=-5.401511D-01  Symmetry=ag
              MO Center=  3.1D-10, -3.8D-10, -3.8D-23, r^2= 2.6D+01
   Bfn.  Coefficient  Atom+Function         Bfn.  Coefficient  Atom+Function  
  ----- ------------  ---------------      ----- ------------  ---------------
    21      0.133317   2 S  s               145      0.133317  10 S  s         
    52      0.121476   4 C  px               97     -0.121476   7 C  px        

 Vector   82  Occ=2.000000D+00  E=-5.332475D-01  Symmetry=bu
              MO Center= -1.1D-09,  5.5D-09, -1.1D-12, r^2= 2.6D+01
   Bfn.  Coefficient  Atom+Function         Bfn.  Coefficient  Atom+Function  
  ----- ------------  ---------------      ----- ------------  ---------------
    21      0.129217   2 S  s               145     -0.129217  10 S  s         
   307      0.126438  22 S  s               347     -0.126438  27 S  s         
    67      0.120895   5 C  px              112      0.120895   8 C  px        

 Vector   83  Occ=2.000000D+00  E=-5.312527D-01  Symmetry=ag
              MO Center= -2.0D-09, -5.4D-09, -8.0D-13, r^2= 3.0D+01
   Bfn.  Coefficient  Atom+Function         Bfn.  Coefficient  Atom+Function  
  ----- ------------  ---------------      ----- ------------  ---------------
   307     -0.119019  22 S  s               347     -0.119019  27 S  s         
   259      0.113211  19 C  px              378     -0.113211  29 C  px        

 Vector   84  Occ=2.000000D+00  E=-5.259101D-01  Symmetry=bu
              MO Center=  2.6D-09,  1.0D-09, -1.1D-12, r^2= 3.0D+01
   Bfn.  Coefficient  Atom+Function         Bfn.  Coefficient  Atom+Function  
  ----- ------------  ---------------      ----- ------------  ---------------
   196      0.171798  14 S  s               473     -0.171798  36 S  s         

 Vector   85  Occ=2.000000D+00  E=-5.209643D-01  Symmetry=ag
              MO Center=  5.7D-10, -1.2D-09, -1.0D-12, r^2= 3.2D+01
   Bfn.  Coefficient  Atom+Function         Bfn.  Coefficient  Atom+Function  
  ----- ------------  ---------------      ----- ------------  ---------------
   196      0.141361  14 S  s               473      0.141361  36 S  s         
   307     -0.136006  22 S  s               347     -0.136006  27 S  s         

 Vector   86  Occ=2.000000D+00  E=-5.069860D-01  Symmetry=bu
              MO Center= -1.2D-08,  1.3D-08, -5.8D-11, r^2= 2.6D+01
   Bfn.  Coefficient  Atom+Function         Bfn.  Coefficient  Atom+Function  
  ----- ------------  ---------------      ----- ------------  ---------------
     6      0.196831   1 C  s               130     -0.196831   9 C  s         

 Vector   87  Occ=2.000000D+00  E=-4.852475D-01  Symmetry=bu
              MO Center= -9.0D-10,  8.0D-10, -3.1D-13, r^2= 3.0D+01
   Bfn.  Coefficient  Atom+Function         Bfn.  Coefficient  Atom+Function  
  ----- ------------  ---------------      ----- ------------  ---------------
    68      0.153503   5 C  py              113      0.153503   8 C  py        
   247      0.150416  18 C  s               366     -0.150416  28 C  s         

 Vector   88  Occ=2.000000D+00  E=-4.766565D-01  Symmetry=ag
              MO Center=  1.8D-09, -1.1D-08, -5.6D-20, r^2= 2.5D+01
   Bfn.  Coefficient  Atom+Function         Bfn.  Coefficient  Atom+Function  
  ----- ------------  ---------------      ----- ------------  ---------------
     4      0.179201   1 C  py               67     -0.179955   5 C  px        
   112      0.179955   8 C  px              128     -0.179201   9 C  py        
    40     -0.174342   3 C  s                85     -0.174342   6 C  s         

 Vector   89  Occ=2.000000D+00  E=-4.663098D-01  Symmetry=ag
              MO Center=  6.5D-09,  1.4D-09, -6.3D-13, r^2= 3.1D+01
   Bfn.  Coefficient  Atom+Function         Bfn.  Coefficient  Atom+Function  
  ----- ------------  ---------------      ----- ------------  ---------------
    55      0.151688   4 C  s               100      0.151688   7 C  s         
   181     -0.151470  13 C  s               458     -0.151470  35 C  s         

 Vector   90  Occ=2.000000D+00  E=-4.417706D-01  Symmetry=bu
              MO Center=  2.7D-10,  7.5D-10, -9.2D-13, r^2= 2.2D+01
   Bfn.  Coefficient  Atom+Function         Bfn.  Coefficient  Atom+Function  
  ----- ------------  ---------------      ----- ------------  ---------------
    53     -0.154437   4 C  py               98     -0.154437   7 C  py        

 Vector   91  Occ=2.000000D+00  E=-4.300536D-01  Symmetry=ag
              MO Center=  6.4D-10, -3.6D-09, -9.3D-13, r^2= 2.4D+01
   Bfn.  Coefficient  Atom+Function         Bfn.  Coefficient  Atom+Function  
  ----- ------------  ---------------      ----- ------------  ---------------
    37      0.156015   3 C  px               82     -0.156015   6 C  px        

 Vector   92  Occ=2.000000D+00  E=-4.197550D-01  Symmetry=bu
              MO Center= -2.7D-10,  1.1D-09, -1.1D-12, r^2= 2.9D+01
   Bfn.  Coefficient  Atom+Function         Bfn.  Coefficient  Atom+Function  
  ----- ------------  ---------------      ----- ------------  ---------------
   245      0.163847  18 C  py              364      0.163847  28 C  py        
    37      0.154410   3 C  px               82      0.154410   6 C  px        

 Vector   93  Occ=2.000000D+00  E=-4.189491D-01  Symmetry=au
              MO Center= -1.9D-10,  1.5D-09,  1.5D-12, r^2= 1.1D+01
   Bfn.  Coefficient  Atom+Function         Bfn.  Coefficient  Atom+Function  
  ----- ------------  ---------------      ----- ------------  ---------------
    24      0.180805   2 S  pz              148      0.180805  10 S  pz        
     5      0.177419   1 C  pz              129      0.177419   9 C  pz        

 Vector   94  Occ=2.000000D+00  E=-4.142744D-01  Symmetry=bu
              MO Center= -1.0D-09,  4.3D-10, -5.6D-13, r^2= 2.3D+01
   Bfn.  Coefficient  Atom+Function         Bfn.  Coefficient  Atom+Function  
  ----- ------------  ---------------      ----- ------------  ---------------
    55      0.153813   4 C  s               100     -0.153813   7 C  s         
     3      0.151515   1 C  px              127      0.151515   9 C  px        

 Vector   95  Occ=2.000000D+00  E=-4.103190D-01  Symmetry=ag
              MO Center=  4.9D-10, -3.2D-10, -3.0D-13, r^2= 2.4D+01
   Bfn.  Coefficient  Atom+Function         Bfn.  Coefficient  Atom+Function  
  ----- ------------  ---------------      ----- ------------  ---------------
     4      0.185682   1 C  py              128     -0.185682   9 C  py        

 Vector   96  Occ=2.000000D+00  E=-4.066786D-01  Symmetry=bg
              MO Center= -2.5D-10, -1.4D-09, -5.4D-12, r^2= 2.0D+01
   Bfn.  Coefficient  Atom+Function         Bfn.  Coefficient  Atom+Function  
  ----- ------------  ---------------      ----- ------------  ---------------
    39      0.156289   3 C  pz               84     -0.156289   6 C  pz        

 Vector   97  Occ=2.000000D+00  E=-4.044115D-01  Symmetry=ag
              MO Center=  1.1D-09, -1.6D-09,  1.4D-13, r^2= 3.3D+01
   Bfn.  Coefficient  Atom+Function         Bfn.  Coefficient  Atom+Function  
  ----- ------------  ---------------      ----- ------------  ---------------
   275      0.222282  20 C  py              394     -0.222282  30 C  py        
   260     -0.192453  19 C  py              379      0.192453  29 C  py        

 Vector   98  Occ=2.000000D+00  E=-4.043354D-01  Symmetry=bu
              MO Center=  4.3D-10, -2.9D-10, -3.4D-13, r^2= 3.3D+01
   Bfn.  Coefficient  Atom+Function         Bfn.  Coefficient  Atom+Function  
  ----- ------------  ---------------      ----- ------------  ---------------
   260      0.158111  19 C  py              379      0.158111  29 C  py        

 Vector   99  Occ=2.000000D+00  E=-4.006699D-01  Symmetry=ag
              MO Center=  3.0D-09,  4.1D-09, -7.6D-14, r^2= 3.2D+01
   Bfn.  Coefficient  Atom+Function         Bfn.  Coefficient  Atom+Function  
  ----- ------------  ---------------      ----- ------------  ---------------
   164      0.191954  12 C  py              441     -0.191954  34 C  py        
   228     -0.183558  16 C  py              426      0.183558  33 C  py        
   213      0.177482  15 C  py              411     -0.177482  32 C  py        

 Vector  100  Occ=2.000000D+00  E=-3.993636D-01  Symmetry=bu
              MO Center= -3.0D-09, -5.0D-09,  9.9D-14, r^2= 3.5D+01
   Bfn.  Coefficient  Atom+Function         Bfn.  Coefficient  Atom+Function  
  ----- ------------  ---------------      ----- ------------  ---------------
   228      0.229721  16 C  py              426      0.229721  33 C  py        
   164     -0.208330  12 C  py              441     -0.208330  34 C  py        
   213     -0.194077  15 C  py              411     -0.194077  32 C  py        

 Vector  101  Occ=2.000000D+00  E=-3.988028D-01  Symmetry=ag
              MO Center=  2.5D-10,  3.2D-10, -1.3D-15, r^2= 3.2D+01
   Bfn.  Coefficient  Atom+Function         Bfn.  Coefficient  Atom+Function  
  ----- ------------  ---------------      ----- ------------  ---------------
   163      0.157651  12 C  px              440     -0.157651  34 C  px        
   228     -0.151666  16 C  py              426      0.151666  33 C  py        

 Vector  102  Occ=2.000000D+00  E=-3.881914D-01  Symmetry=bu
              MO Center=  2.7D-10, -2.1D-10,  1.7D-13, r^2= 3.3D+01
   Bfn.  Coefficient  Atom+Function         Bfn.  Coefficient  Atom+Function  
  ----- ------------  ---------------      ----- ------------  ---------------
   309     -0.156637  22 S  py              349     -0.156637  27 S  py        

 Vector  103  Occ=2.000000D+00  E=-3.826015D-01  Symmetry=au
              MO Center=  3.2D-10, -2.4D-10,  3.6D-13, r^2= 3.3D+01
   Bfn.  Coefficient  Atom+Function         Bfn.  Coefficient  Atom+Function  
  ----- ------------  ---------------      ----- ------------  ---------------
   310      0.211097  22 S  pz              350      0.211097  27 S  pz        
   246      0.152721  18 C  pz              365      0.152721  28 C  pz        

 Vector  104  Occ=2.000000D+00  E=-3.822648D-01  Symmetry=bg
              MO Center= -3.0D-09, -2.5D-09, -5.1D-13, r^2= 3.3D+01
   Bfn.  Coefficient  Atom+Function         Bfn.  Coefficient  Atom+Function  
  ----- ------------  ---------------      ----- ------------  ---------------
   199      0.181765  14 S  pz              476     -0.181765  36 S  pz        
   310     -0.160567  22 S  pz              350      0.160567  27 S  pz        

 Vector  105  Occ=2.000000D+00  E=-3.799552D-01  Symmetry=bu
              MO Center=  7.0D-10,  8.2D-09,  9.2D-13, r^2= 3.3D+01
   Bfn.  Coefficient  Atom+Function         Bfn.  Coefficient  Atom+Function  
  ----- ------------  ---------------      ----- ------------  ---------------
   197      0.195280  14 S  px              474      0.195280  36 S  px        
   227      0.151444  16 C  px              425      0.151444  33 C  px        

 Vector  106  Occ=2.000000D+00  E=-3.798915D-01  Symmetry=au
              MO Center=  3.1D-09,  2.6D-09,  1.7D-12, r^2= 2.6D+01
   Bfn.  Coefficient  Atom+Function         Bfn.  Coefficient  Atom+Function  
  ----- ------------  ---------------      ----- ------------  ---------------
   199      0.209106  14 S  pz              476      0.209106  36 S  pz        
     5     -0.155468   1 C  pz              129     -0.155468   9 C  pz        

 Vector  107  Occ=2.000000D+00  E=-3.778604D-01  Symmetry=ag
              MO Center= -7.8D-10, -7.6D-09, -4.9D-14, r^2= 3.5D+01
   Bfn.  Coefficient  Atom+Function         Bfn.  Coefficient  Atom+Function  
  ----- ------------  ---------------      ----- ------------  ---------------
   197      0.214475  14 S  px              474     -0.214475  36 S  px        
   308     -0.173841  22 S  px              348      0.173841  27 S  px        

 Vector  108  Occ=2.000000D+00  E=-3.679237D-01  Symmetry=ag
              MO Center=  5.5D-10,  4.7D-12, -5.7D-13, r^2= 2.2D+01
   Bfn.  Coefficient  Atom+Function         Bfn.  Coefficient  Atom+Function  
  ----- ------------  ---------------      ----- ------------  ---------------
    23      0.228136   2 S  py              147     -0.228136  10 S  py        
     3      0.159932   1 C  px              127     -0.159932   9 C  px        
    68     -0.157667   5 C  py              113      0.157667   8 C  py        

 Vector  109  Occ=2.000000D+00  E=-3.617574D-01  Symmetry=bu
              MO Center=  1.5D-10,  2.2D-10,  3.8D-13, r^2= 2.8D+01
   Bfn.  Coefficient  Atom+Function         Bfn.  Coefficient  Atom+Function  
  ----- ------------  ---------------      ----- ------------  ---------------
   198      0.216489  14 S  py              475      0.216489  36 S  py        
   308      0.208073  22 S  px              348      0.208073  27 S  px        

 Vector  110  Occ=2.000000D+00  E=-3.594014D-01  Symmetry=bg
              MO Center= -5.4D-11,  2.4D-10,  1.3D-11, r^2= 2.4D+01
   Bfn.  Coefficient  Atom+Function         Bfn.  Coefficient  Atom+Function  
  ----- ------------  ---------------      ----- ------------  ---------------
    24      0.197066   2 S  pz              148     -0.197066  10 S  pz        
   310     -0.155111  22 S  pz              350      0.155111  27 S  pz        

 Vector  111  Occ=2.000000D+00  E=-3.553041D-01  Symmetry=ag
              MO Center=  3.6D-10, -6.4D-10, -3.2D-14, r^2= 2.6D+01
   Bfn.  Coefficient  Atom+Function         Bfn.  Coefficient  Atom+Function  
  ----- ------------  ---------------      ----- ------------  ---------------
   198      0.202693  14 S  py              475     -0.202693  36 S  py        
   309      0.196222  22 S  py              349     -0.196222  27 S  py        
    23     -0.152373   2 S  py              147      0.152373  10 S  py        

 Vector  112  Occ=2.000000D+00  E=-3.449563D-01  Symmetry=bu
              MO Center= -3.8D-10,  1.2D-09, -1.0D-12, r^2= 1.6D+01
   Bfn.  Coefficient  Atom+Function         Bfn.  Coefficient  Atom+Function  
  ----- ------------  ---------------      ----- ------------  ---------------
    22      0.304744   2 S  px              146      0.304744  10 S  px        
    23      0.166737   2 S  py              147      0.166737  10 S  py        
    25     -0.150775   2 S  s               149      0.150775  10 S  s         

 Vector  113  Occ=2.000000D+00  E=-3.320881D-01  Symmetry=ag
              MO Center=  1.7D-09, -1.4D-09, -3.3D-12, r^2= 1.2D+01
   Bfn.  Coefficient  Atom+Function         Bfn.  Coefficient  Atom+Function  
  ----- ------------  ---------------      ----- ------------  ---------------
    22      0.375739   2 S  px              146     -0.375739  10 S  px        
     3     -0.167693   1 C  px              127      0.167693   9 C  px        
    67      0.150462   5 C  px              112     -0.150462   8 C  px        

 Vector  114  Occ=2.000000D+00  E=-3.174687D-01  Symmetry=bu
              MO Center= -1.5D-10, -6.0D-09, -2.1D-12, r^2= 3.7D+01
   Bfn.  Coefficient  Atom+Function         Bfn.  Coefficient  Atom+Function  
  ----- ------------  ---------------      ----- ------------  ---------------
   308      0.255028  22 S  px              348      0.255028  27 S  px        
   197      0.230077  14 S  px              474      0.230077  36 S  px        
   198     -0.191785  14 S  py              475     -0.191785  36 S  py        
   200     -0.163118  14 S  s               311      0.162308  22 S  s         
   351     -0.162308  27 S  s               477      0.163118  36 S  s         

 Vector  115  Occ=2.000000D+00  E=-3.166143D-01  Symmetry=ag
              MO Center=  1.6D-10,  6.2D-09, -2.3D-12, r^2= 3.5D+01
   Bfn.  Coefficient  Atom+Function         Bfn.  Coefficient  Atom+Function  
  ----- ------------  ---------------      ----- ------------  ---------------
   308      0.244389  22 S  px              348     -0.244389  27 S  px        
   197      0.218485  14 S  px              474     -0.218485  36 S  px        
   198     -0.191607  14 S  py              475      0.191607  36 S  py        
   200     -0.155059  14 S  s               311      0.154397  22 S  s         
   351      0.154397  27 S  s               477     -0.155059  36 S  s         

 Vector  116  Occ=2.000000D+00  E=-3.076998D-01  Symmetry=au
              MO Center=  2.9D-11, -2.4D-10,  8.9D-13, r^2= 1.9D+01
   Bfn.  Coefficient  Atom+Function         Bfn.  Coefficient  Atom+Function  
  ----- ------------  ---------------      ----- ------------  ---------------
     5      0.202927   1 C  pz              129      0.202927   9 C  pz        
    39     -0.200341   3 C  pz               84     -0.200341   6 C  pz        
    54     -0.160280   4 C  pz               99     -0.160280   7 C  pz        

 Vector  117  Occ=2.000000D+00  E=-2.836016D-01  Symmetry=bg
              MO Center=  7.3D-12,  1.0D-12,  8.1D-12, r^2= 1.9D+01
   Bfn.  Coefficient  Atom+Function         Bfn.  Coefficient  Atom+Function  
  ----- ------------  ---------------      ----- ------------  ---------------
    24      0.295177   2 S  pz              148     -0.295177  10 S  pz        
    54     -0.165816   4 C  pz               99      0.165816   7 C  pz        
    28      0.164877   2 S  pz              152     -0.164877  10 S  pz        

 Vector  118  Occ=2.000000D+00  E=-2.799777D-01  Symmetry=au
              MO Center= -1.1D-10,  4.3D-11,  4.8D-12, r^2= 2.1D+01
   Bfn.  Coefficient  Atom+Function         Bfn.  Coefficient  Atom+Function  
  ----- ------------  ---------------      ----- ------------  ---------------
    24      0.258035   2 S  pz              148      0.258035  10 S  pz        

 Vector  119  Occ=2.000000D+00  E=-2.648373D-01  Symmetry=bg
              MO Center= -2.6D-10,  5.0D-10,  3.9D-12, r^2= 2.6D+01
   Bfn.  Coefficient  Atom+Function         Bfn.  Coefficient  Atom+Function  
  ----- ------------  ---------------      ----- ------------  ---------------
   246      0.187302  18 C  pz              365     -0.187302  28 C  pz        
   291     -0.180602  21 C  pz              331      0.180602  26 C  pz        
[...]
     ------------------------------------------------------------------


     ------------------------------------------------------------------
      Transitions from Root:  8 
      First 10 perturbed roots were matched 
     ------------------------------------------------------------------


     ------------------------------------------------------------------
     Root    8 to root    1 
     Wavelength        =            -996.222784 nm 
     Transition energy =              -1.244501 eV 
     ------------------------------------------------------------------
     X     -0.35635, Y      1.51413, Z      0.00000 
     XX    -0.00000, XY    -0.00000, XZ    -0.00000 
     YY    -0.00000, YZ     0.00000, ZZ     0.00000 
     ------------------------------------------------------------------
     ------------------------------------------------------------------
     Root    8 to root    2 
     Wavelength        =           -1138.125968 nm 
     Transition energy =              -1.089335 eV 
     ------------------------------------------------------------------
     X     -0.00000, Y     -0.00000, Z      0.00000 
     XX    -2.72966, XY   -15.83729, XZ    -0.00000 
     YY    -1.30370, YZ     0.00000, ZZ    -0.03195 
     ------------------------------------------------------------------
     ------------------------------------------------------------------
     Root    8 to root    3 
     Wavelength        =           -2031.616426 nm 
     Transition energy =              -0.610253 eV 
     ------------------------------------------------------------------
     X      0.00000, Y      0.00000, Z      0.00000 
     XX     4.68851, XY    19.96936, XZ     0.00000 
     YY     7.07851, YZ    -0.00000, ZZ     0.01456 
     ------------------------------------------------------------------
     ------------------------------------------------------------------
     Root    8 to root    4 
     Wavelength        =           -2181.110676 nm 
     Transition energy =              -0.568426 eV 
     ------------------------------------------------------------------
     X      0.06309, Y      4.56041, Z      0.00000 
     XX    -0.00000, XY    -0.00000, XZ    -0.00000 
     YY    -0.00000, YZ    -0.00000, ZZ     0.00000 
     ------------------------------------------------------------------
     ------------------------------------------------------------------
     Root    8 to root    5 
     Wavelength        =           -3607.213162 nm 
     Transition energy =              -0.343700 eV 
     ------------------------------------------------------------------
     X      2.14983, Y      5.70192, Z     -0.00000 
     XX    -0.00000, XY    -0.00000, XZ    -0.00000 
     YY    -0.00000, YZ     0.00000, ZZ    -0.00000 
     ------------------------------------------------------------------
     ------------------------------------------------------------------
     Root    8 to root    6 
     Wavelength        =           -3693.087360 nm 
     Transition energy =              -0.335708 eV 
     ------------------------------------------------------------------
     X     -0.00000, Y     -0.00000, Z     -0.00000 
     XX    -1.27275, XY    -3.96496, XZ    -0.00000 
     YY    -1.92245, YZ     0.00000, ZZ    -0.05607 
     ------------------------------------------------------------------
     ------------------------------------------------------------------
     Root    8 to root    7 
     Wavelength        =          -12756.993803 nm 
     Transition energy =              -0.097186 eV 
     ------------------------------------------------------------------
     X      2.94864, Y     -1.26536, Z      0.00000 
     XX     0.00000, XY     0.00000, XZ    -0.00000 
     YY     0.00000, YZ    -0.00000, ZZ     0.00000 
     ------------------------------------------------------------------
     ------------------------------------------------------------------
     Root    8 to root    8 
     Wavelength        =               0.000000 nm 
     Transition energy =               0.000000 eV 
     ------------------------------------------------------------------
     X     -0.00000, Y      0.00000, Z     -0.00000 
     XX     0.13548, XY    15.80301, XZ    -0.00000 
     YY   -18.02975, YZ     0.00000, ZZ    -0.01066 
     ------------------------------------------------------------------
     ------------------------------------------------------------------
     Root    8 to root    9 
     Wavelength        =           13427.589503 nm 
     Transition energy =               0.092332 eV 
     ------------------------------------------------------------------
     X     -1.08423, Y     -2.47121, Z     -0.00000 
     XX    -0.00000, XY    -0.00000, XZ     0.00000 
     YY    -0.00000, YZ     0.00000, ZZ    -0.00000 
     ------------------------------------------------------------------
     ------------------------------------------------------------------
     Root    8 to root   10 
     Wavelength        =            8808.913402 nm 
     Transition energy =               0.140744 eV 
     ------------------------------------------------------------------
     X     -0.00000, Y     -0.00000, Z     -0.00000 
     XX     1.23931, XY     0.75744, XZ     0.00000 
     YY     8.18798, YZ    -0.00000, ZZ     0.01895 
     ------------------------------------------------------------------


     ------------------------------------------------------------------
      Transitions from Root:  9 
      First 10 perturbed roots were matched 
     ------------------------------------------------------------------


     ------------------------------------------------------------------
     Root    9 to root    1 
     Wavelength        =            -927.415744 nm 
     Transition energy =              -1.336833 eV 
     ------------------------------------------------------------------
     X      0.00161, Y      0.00120, Z     -0.00000 
     XX    -3.43468, XY     6.80878, XZ     0.00000 
     YY   -17.23849, YZ     0.00000, ZZ    -0.00106 
     ------------------------------------------------------------------
     ------------------------------------------------------------------
     Root    9 to root    2 
     Wavelength        =           -1049.195855 nm 
     Transition energy =              -1.181667 eV 
     ------------------------------------------------------------------
     X      0.40846, Y     -1.43959, Z     -0.00000 
     XX     0.00733, XY    -0.01092, XZ     0.00000 
     YY     0.01325, YZ     0.00000, ZZ     0.00021 
     ------------------------------------------------------------------
     ------------------------------------------------------------------
     Root    9 to root    3 
     Wavelength        =           -1764.625655 nm 
     Transition energy =              -0.702585 eV 
     ------------------------------------------------------------------
     X     -1.92472, Y      3.18675, Z      0.00000 
     XX    -0.00482, XY    -0.00362, XZ    -0.00000 
     YY    -0.03831, YZ     0.00000, ZZ    -0.00031 
     ------------------------------------------------------------------
     ------------------------------------------------------------------
     Root    9 to root    4 
     Wavelength        =           -1876.329130 nm 
     Transition energy =              -0.660758 eV 
     ------------------------------------------------------------------
     X     -0.00011, Y      0.00074, Z      0.00000 
     XX     0.88541, XY     3.95063, XZ    -0.00000 
     YY    -0.20327, YZ     0.00000, ZZ     0.00020 
     ------------------------------------------------------------------
     ------------------------------------------------------------------
     Root    9 to root    5 
     Wavelength        =           -2843.365934 nm 
     Transition energy =              -0.436033 eV 
     ------------------------------------------------------------------
     X      0.00030, Y     -0.00109, Z      0.00000 
     XX     0.29801, XY   -22.54807, XZ     0.00000 
     YY    11.99137, YZ    -0.00000, ZZ    -0.03983 
     ------------------------------------------------------------------
     ------------------------------------------------------------------
     Root    9 to root    6 
     Wavelength        =           -2896.454472 nm 
     Transition energy =              -0.428041 eV 
     ------------------------------------------------------------------
     X     -0.62456, Y      3.33982, Z      0.00000 
     XX     0.01164, XY    -0.00582, XZ    -0.00000 
     YY    -0.07598, YZ     0.00000, ZZ    -0.00042 
     ------------------------------------------------------------------
     ------------------------------------------------------------------
     Root    9 to root    7 
     Wavelength        =           -6541.852283 nm 
     Transition energy =              -0.189518 eV 
     ------------------------------------------------------------------
     X     -0.00027, Y      0.00099, Z      0.00000 
     XX    -2.96282, XY   -17.43761, XZ    -0.00000 
     YY    -3.04843, YZ     0.00000, ZZ     0.01387 
     ------------------------------------------------------------------
     ------------------------------------------------------------------
     Root    9 to root    8 
     Wavelength        =          -13427.589503 nm 
     Transition energy =              -0.092332 eV 
     ------------------------------------------------------------------
     X     -1.08303, Y     -2.47061, Z     -0.00000 
     XX    -0.00784, XY    -0.00144, XZ     0.00000 
     YY    -0.00994, YZ     0.00000, ZZ     0.00009 
     ------------------------------------------------------------------
     ------------------------------------------------------------------
     Root    9 to root    9 
     Wavelength        =               0.000000 nm 
     Transition energy =               0.000000 eV 
     ------------------------------------------------------------------
     X      0.00223, Y      0.00684, Z      0.00000 
     XX     3.56027, XY     7.45203, XZ    -0.00000 
     YY     1.09354, YZ     0.00000, ZZ     0.07613 
     ------------------------------------------------------------------
     ------------------------------------------------------------------
     Root    9 to root   10 
     Wavelength        =           25609.605559 nm 
     Transition energy =               0.048412 eV 
     ------------------------------------------------------------------
     X     -1.15821, Y     -3.66537, Z     -0.00000 
     XX     0.00059, XY    -0.00168, XZ     0.00000 
     YY    -0.00955, YZ    -0.00000, ZZ     0.00000 
     ------------------------------------------------------------------


     ------------------------------------------------------------------
      Transitions from Root:  10 
      First 10 perturbed roots were matched 
     ------------------------------------------------------------------


     ------------------------------------------------------------------
     Root   10 to root    1 
     Wavelength        =            -895.004421 nm 
     Transition energy =              -1.385245 eV 
     ------------------------------------------------------------------
     X     -0.31877, Y     -0.27905, Z     -0.00000 
     XX    -0.00000, XY     0.00000, XZ     0.00000 
     YY    -0.00000, YZ     0.00000, ZZ    -0.00000 
     ------------------------------------------------------------------
     ------------------------------------------------------------------
     Root   10 to root    2 
     Wavelength        =           -1007.903228 nm 
     Transition energy =              -1.230078 eV 
     ------------------------------------------------------------------
     X     -0.00000, Y     -0.00000, Z      0.00000 
     XX     0.84068, XY     1.43091, XZ    -0.00000 
     YY     2.40111, YZ    -0.00000, ZZ     0.00833 
     ------------------------------------------------------------------
     ------------------------------------------------------------------
     Root   10 to root    3 
     Wavelength        =           -1650.872554 nm 
     Transition energy =              -0.750997 eV 
     ------------------------------------------------------------------
     X     -0.00000, Y      0.00000, Z     -0.00000 
     XX     0.00012, XY     4.87390, XZ     0.00000 
     YY    -3.13410, YZ    -0.00000, ZZ    -0.00167 
     ------------------------------------------------------------------
     ------------------------------------------------------------------
     Root   10 to root    4 
     Wavelength        =           -1748.241399 nm 
     Transition energy =              -0.709170 eV 
     ------------------------------------------------------------------
     X     -0.01776, Y     -0.73921, Z     -0.00000 
     XX     0.00000, XY     0.00000, XZ    -0.00000 
     YY     0.00000, YZ    -0.00000, ZZ    -0.00000 
     ------------------------------------------------------------------
     ------------------------------------------------------------------
     Root   10 to root    5 
     Wavelength        =           -2559.222331 nm 
     Transition energy =              -0.484444 eV 
     ------------------------------------------------------------------
     X     -0.80392, Y     -2.79048, Z      0.00000 
     XX     0.00000, XY    -0.00000, XZ     0.00000 
     YY     0.00000, YZ     0.00000, ZZ    -0.00000 
     ------------------------------------------------------------------
     ------------------------------------------------------------------
     Root   10 to root    6 
     Wavelength        =           -2602.150437 nm 
     Transition energy =              -0.476452 eV 
     ------------------------------------------------------------------
     X      0.00000, Y      0.00000, Z      0.00000 
     XX     1.58978, XY     2.16248, XZ    -0.00000 
     YY     3.80880, YZ    -0.00000, ZZ    -0.01022 
     ------------------------------------------------------------------
     ------------------------------------------------------------------
     Root   10 to root    7 
     Wavelength        =           -5210.782584 nm 
     Transition energy =              -0.237930 eV 
     ------------------------------------------------------------------
     X      0.09609, Y      0.81858, Z     -0.00000 
     XX    -0.00000, XY    -0.00000, XZ    -0.00000 
     YY     0.00000, YZ    -0.00000, ZZ     0.00000 
     ------------------------------------------------------------------
     ------------------------------------------------------------------
     Root   10 to root    8 
     Wavelength        =           -8808.913402 nm 
     Transition energy =              -0.140744 eV 
     ------------------------------------------------------------------
     X     -0.00000, Y     -0.00000, Z     -0.00000 
     XX     1.22656, XY     0.73636, XZ     0.00000 
     YY     8.13814, YZ    -0.00000, ZZ     0.01908 
     ------------------------------------------------------------------
     ------------------------------------------------------------------
     Root   10 to root    9 
     Wavelength        =          -25609.605559 nm 
     Transition energy =              -0.048412 eV 
     ------------------------------------------------------------------
     X     -1.15831, Y     -3.66520, Z     -0.00000 
     XX     0.00000, XY     0.00000, XZ     0.00000 
     YY     0.00000, YZ    -0.00000, ZZ    -0.00000 
     ------------------------------------------------------------------
     ------------------------------------------------------------------
     Root   10 to root   10 
     Wavelength        =               0.000000 nm 
     Transition energy =               0.000000 eV 
     ------------------------------------------------------------------
     X     -0.00000, Y     -0.00000, Z     -0.00000 
     XX    12.92036, XY    25.04773, XZ     0.00000 
     YY    38.98407, YZ    -0.00000, ZZ     0.20341 
     ------------------------------------------------------------------
     *************************************
     Info to read saved files:
     Number of moments: 20
     No.       roots in scan window: 10
     No.                total roots: 10
     Size of vector omega:           10

     Multipoles vector size:         2000

     Moments mapping (C Notation): 
     X is 1, Y  2, Z  3,  
     XX   4, XY 5, XZ 6, 
     YY   7, YZ 8, ZZ 9 
     *************************************
Second linear response calculation ends

 Task  times  cpu:      545.0s     wall:     1866.9s


                                NWChem Input Module
                                -------------------


 Summary of allocated global arrays
-----------------------------------
  No active global arrays



                         GA Statistics for process    0
                         ------------------------------

       create   destroy   get      put      acc     scatter   gather  read&inc
calls: 1223     1223     1.55e+06 1.47e+05 6.72e+05  618        0     1276     
number of processes/call 1.16e+00 1.96e+00 1.46e+00 0.00e+00 0.00e+00
bytes total:             5.81e+09 2.33e+08 3.69e+09 1.01e+03 0.00e+00 1.02e+04
bytes remote:            5.36e+09 9.22e+07 3.58e+09 -3.07e+04 0.00e+00 0.00e+00
Max memory consumed for GA by this process: 74103248 bytes

MA_summarize_allocated_blocks: starting scan ...
MA_summarize_allocated_blocks: scan completed: 0 heap blocks, 0 stack blocks
MA usage statistics:

	allocation statistics:
					      heap	     stack
					      ----	     -----
	current number of blocks	         0	         0
	maximum number of blocks	        23	        51
	current total bytes		         0	         0
	maximum total bytes		   4112512	  29478440
	maximum total K-bytes		      4113	     29479
	maximum total M-bytes		         5	        30


                                     CITATION
                                     --------
                Please cite the following reference when publishing
                           results obtained with NWChem:

                 M. Valiev, E.J. Bylaska, N. Govind, K. Kowalski,
              T.P. Straatsma, H.J.J. van Dam, D. Wang, J. Nieplocha,
                        E. Apra, T.L. Windus, W.A. de Jong
                 "NWChem: a comprehensive and scalable open-source
                  solution for large scale molecular simulations"
                      Comput. Phys. Commun. 181, 1477 (2010)
                           doi:10.1016/j.cpc.2010.04.018

                                      AUTHORS
                                      -------
          E. Apra, E. J. Bylaska, W. A. de Jong, N. Govind, K. Kowalski,
       T. P. Straatsma, M. Valiev, H. J. J. van Dam, D. Wang, T. L. Windus,
        J. Hammond, J. Autschbach, K. Bhaskaran-Nair, J. Brabec, K. Lopata,
       S. A. Fischer, S. Krishnamoorthy, W. Ma, M. Klemm, O. Villa, Y. Chen,
    V. Anisimov, F. Aquino, S. Hirata, M. T. Hackler, T. Risthaus, M. Malagoli,
       A. Marenich, A. Otero-de-la-Roza, J. Mullin, P. Nichols, R. Peverati,
     J. Pittner, Y. Zhao, P.-D. Fan, A. Fonari, M. Williamson, R. J. Harrison,
       J. R. Rehr, M. Dupuis, D. Silverstein, D. M. A. Smith, J. Nieplocha,
        V. Tipparaju, M. Krishnan, B. E. Van Kuiken, A. Vazquez-Mayagoitia,
        L. Jensen, M. Swart, Q. Wu, T. Van Voorhis, A. A. Auer, M. Nooijen,
      L. D. Crosby, E. Brown, G. Cisneros, G. I. Fann, H. Fruchtl, J. Garza,
        K. Hirao, R. A. Kendall, J. A. Nichols, K. Tsemekhman, K. Wolinski,
     J. Anchell, D. E. Bernholdt, P. Borowski, T. Clark, D. Clerc, H. Dachsel,
   M. J. O. Deegan, K. Dyall, D. Elwood, E. Glendening, M. Gutowski, A. C. Hess,
         J. Jaffe, B. G. Johnson, J. Ju, R. Kobayashi, R. Kutteh, Z. Lin,
   R. Littlefield, X. Long, B. Meng, T. Nakajima, S. Niu, L. Pollack, M. Rosing,
   K. Glaesemann, G. Sandrone, M. Stave, H. Taylor, G. Thomas, J. H. van Lenthe,
                               A. T. Wong, Z. Zhang.

 Total times  cpu:      545.2s     wall:     1871.2s
